LAMMPS data file via write_data, version 15 May 2015, timestep = 157071

105 atoms
14 atom types
109 bonds
39 bond types
197 angles
112 angle types
48 dihedrals
17 dihedral types
12 impropers
83 improper types

-2.7920324273300000e+01 5.5776022024800000e+01 xlo xhi
-2.2221869011700001e+01 5.0237672795100003e+01 ylo yhi
-2.5200362127300000e+01 4.4989334120800002e+01 zlo zhi

Masses

1 12
2 32.065
3 12
4 19
5 1
6 12
7 16
8 16
9 12
10 1
11 35.453
12 12
13 1
14 126.904

Pair Coeffs # lj/cut

1 0.066 3.5
2 0.25 3.55
3 0.066 2.5
4 0.061 2.85
5 0.03 2.5
6 0.105 3.5
7 0.14 2.9
8 0.21 2.96
9 0.07 3.55
10 0.03 2.42
11 0.3 3.4
12 0.066 3.5
13 0.03 2.5
14 0.6 3.7

Bond Coeffs # harmonic

1 335.095 1.84
2 335.095 1.82
3 208.599 1.44
4 208.599 1.36
5 208.599 1.43
6 137.609 1.38
7 208.599 1.37
8 335.095 1.83
9 208.599 1.39
10 208.599 1.42
11 335.095 1.85
12 335.095 1.81
13 50.1197 1.08
14 208.599 1.41
15 208.599 1.38
16 208.599 1.526
17 50.1197 1.09
18 155.153 1.44
19 810.308 1.21
20 208.599 1.45
21 208.599 1.4
22 208.599 1.46
23 208.599 1.47
24 208.599 1.48
25 208.599 1.49
26 208.599 1.51
27 208.599 1.53
28 50.1197 1.1
29 155.153 1.21
30 155.153 1.36
31 208.599 1.5
32 270.426 1.43
33 46.8999 1.4
34 46.8999 1.39
35 36.6867 1.08
36 29.9975 1.83
37 208.599 1.526
38 50.1197 1.09
39 703.744 2.16

Angle Coeffs # harmonic

1 60 111.44
2 60 120
3 60 88.7325
4 60 112.307
5 60 130.84
6 60 116.82
7 60 110.534
8 60 114.385
9 60 135.005
10 60 122.165
11 60 120.854
12 60 116.981
13 60 108.035
14 60 130.814
15 60 121.143
16 60 92.1608
17 60 108.544
18 60 126
19 60 111.463
20 60 128.523
21 60 120.008
22 60 114.616
23 60 123.815
24 60 121.56
25 60 113.4
26 60 119.25
27 60 111.421
28 60 122.874
29 60 89.099
30 60 118.068
31 60 122.727
32 60 126.066
33 60 118.962
34 60 112.534
35 60 128.501
36 60 118.113
37 60 89.4743
38 60 110.84
39 60 115.951
40 60 120.473
41 60 123.565
42 37.5 110.7
43 58.35 112.7
44 33 107.8
45 50 109.5
46 35 109.5
47 80 120
48 60 109.5
49 58.35 110.47
50 37.5 114.02
51 37.5 135.459
52 58.35 120.722
53 60 108
54 60 108.01
55 60 120.012
56 60 120.122
57 60 120.035
58 60 107.978
59 60 107.887
60 60 107.821
61 60 120.023
62 60 118.428
63 60 118.661
64 60 121.39
65 60 121.188
66 60 118.58
67 60 121.088
68 60 119.418
69 60 119.846
70 60 120.126
71 60 107.95
72 60 118.436
73 60 121
74 60 108.572
75 60 106.724
76 60 107.313
77 60 119.787
78 60 107.9
79 60 116.241
80 60 119.579
81 60 123.337
82 60 121.171
83 60 108.535
84 60 118.562
85 60 121.438
86 60 121.202
87 60 119.888
88 60 108.406
89 60 121.091
90 60 119.531
91 60 120.641
92 60 108.89
93 100 114
94 100 65.4896
95 100 117
96 100 65
97 60 113
98 37.5 108
99 60 115
100 37.5 120
101 60 120.554
102 55 122.46
103 55 126.7
104 55 116.9
105 55 134.54
106 63 120
107 75 120
108 63 120.386
109 33 109.5
110 37.5 110.7
111 33 107.8
112 58.35 112.7

Dihedral Coeffs # opls

1 15 0 0 0
2 -60 0 0 0
3 -2 3 0 0
4 60 0 0 0
5 0 0 0.636 0
6 1.74 -1.517 0.279 0
7 1.711 -0.5 0.663 0
8 0.65 -0.25 0.67 0
9 -4 2 0 0
10 -0.04 1.4745 -0.13 0
11 0 4 0 0
12 1.73 -1.517 0.279 0
13 -1.711 0.5 -0.663 0
14 0 0 0.336 0
15 -0.04 1.474 -0.134 0
16 -7.5 0 0 0
17 0 0 0.318 0

Improper Coeffs # harmonic

1 30 180
2 10 180
3 60 180
4 33 180
5 10 141.76
6 10 142.066
7 10 137.803
8 10 137.527
9 10 142.701
10 10 141.685
11 10 142.682
12 10 137.753
13 10 137.503
14 10 141.699
15 10 141.773
16 10 143.21
17 10 142.996
18 10 141.737
19 10 143.302
20 10 139.016
21 10 142.26
22 10 143.24
23 10 142.23
24 10 142.393
25 10 142.363
26 10 142.65
27 10 142.331
28 10 143.096
29 10 151.692
30 10 150.85
31 10 151.366
32 10 151.289
33 10 150.548
34 10 146.913
35 10 149.794
36 10 150.947
37 10 147.539
38 10 147.615
39 10 146.857
40 10 146.503
41 10 151.19
42 10 147.188
43 10 149.246
44 10 142.878
45 10 143.959
46 10 142.522
47 10 138.793
48 10 146.593
49 10 143.003
50 10 143.37
51 10 146.81
52 10 142.578
53 10 150.811
54 10 161.964
55 10 143.247
56 10 137.465
57 10 136.186
58 10 142.931
59 10 146.853
60 10 142.386
61 10 150.55
62 10 148.016
63 10 163.569
64 10 143.045
65 10 148.086
66 10 145.002
67 10 136.346
68 10 138.343
69 10 151.395
70 10 147.72
71 10 147.958
72 10 143.042
73 10 144.482
74 10 143.919
75 12 179.773
76 12 176.958
77 10 179.628
78 10 179.826
79 10 179.756
80 10 179.604
81 10 179.264
82 33 180
83 5 180

Atoms # full

36 1 5 3.5053712285699999e-02 1.0130416916734138e+01 1.1491327559297281e+01 3.2995941149048993e+00 0 0 0
42 1 5 3.5053712285699999e-02 8.0680957737800689e+00 1.3749799294398850e+01 3.7918969010040549e+00 0 0 0
35 1 5 3.5053712285699999e-02 8.6404870096371518e+00 1.1201508506327098e+01 4.1402090434819572e+00 0 0 0
33 1 5 3.5053712285699999e-02 1.0979349372771477e+01 9.7685366247887178e+00 4.4726308315472814e+00 0 0 0
44 1 5 3.5053712285699999e-02 8.5121245771620817e+00 8.8700591643748421e+00 4.1763614936923874e+00 0 0 0
25 1 1 -1.4494628771400000e-01 1.0406397367981144e+01 1.0414880637471175e+01 5.1449385049587297e+00 0 0 0
29 1 1 -1.4494628771400000e-01 8.6876639593801386e+00 8.4948747320795306e+00 5.1850715867409338e+00 0 0 0
46 1 5 3.5053712285699999e-02 8.8341529741558578e+00 6.4694017013278220e+00 4.4188664344334470e+00 0 0 0
43 1 5 3.5053712285699999e-02 7.6936279105408065e+00 8.3456005529263599e+00 5.6176114661986265e+00 0 0 0
30 1 1 -2.0494628771400000e-01 9.3849281177028967e+00 7.1355042837036109e+00 5.0824683340612236e+00 0 0 0
47 1 5 3.5053712285699999e-02 1.0395244411943278e+01 7.2412764181142979e+00 4.6862892268792793e+00 0 0 0
48 1 5 4.1508271228600002e-01 7.9902486363084613e+00 9.6663619684205671e+00 7.5963260021126198e+00 0 0 0
31 1 1 1.1505371228600000e-01 8.6012978352266209e+00 1.0337240627431839e+01 6.9794124788563012e+00 0 0 0
50 1 7 -3.9494628771399998e-01 9.4590784954935216e+00 1.1127396626671796e+01 7.8505293423463538e+00 0 0 0
24 1 1 -8.4946287714300003e-02 9.4889163737766129e+00 9.5253217772254501e+00 6.0179440236764288e+00 0 0 0
45 1 5 1.3604171228600001e-01 9.4532428018105019e+00 6.6514211576893647e+00 6.0607113884345445e+00 0 0 0
39 1 5 3.5053712285699999e-02 1.0167563214771784e+01 8.9522876105684013e+00 6.6625613583548455e+00 0 0 0
49 1 5 3.8416271228600002e-01 7.9160538043406623e+00 1.0974966142790828e+01 6.4198599986101650e+00 0 0 0
34 1 5 3.5053712285699999e-02 1.1162242496360374e+01 1.0886047709934122e+01 5.7830089010479950e+00 0 0 0
97 1 5 3.5053712285699999e-02 1.5442073146914575e+01 1.1098426231466552e+01 7.2704723348422071e+00 0 0 0
88 1 5 3.5053712285699999e-02 2.1356049589460461e+01 1.1122577439235272e+01 6.4838874466756478e+00 0 0 0
99 1 5 3.5053712285699999e-02 1.7195681021892415e+01 1.1034871924401697e+01 7.4702335844731946e+00 0 0 0
26 1 1 5.3059271228600002e-01 9.6850573214061466e+00 1.1483147267466789e+01 4.2937313063903328e+00 0 0 0
37 1 5 1.4316771228600000e-01 1.0525575748566407e+01 1.3479177259935522e+01 4.3262325647451423e+00 0 0 0
27 1 1 -1.4494628771400000e-01 9.7684039236163454e+00 1.2911761759099123e+01 4.8750694773170409e+00 0 0 0
51 1 8 -4.7494628771399999e-01 7.5740206182649432e+00 1.2235717562157202e+01 8.6776523659728664e+00 0 0 0
32 1 6 -7.7586877142899998e-03 8.7814007691192959e+00 1.2153107589119889e+01 8.6426458710991181e+00 0 0 0
1 1 1 -5.0430087714300000e-02 9.6254273804847088e+00 1.3300439847128752e+01 9.1907419695421133e+00 0 0 0
41 1 5 3.5053712285699999e-02 7.6724395010822288e+00 1.3158206248942898e+01 5.4097965929064253e+00 0 0 0
40 1 5 3.5053712285699999e-02 8.5438798359008707e+00 1.4672069909477258e+01 5.2188199861483220e+00 0 0 0
28 1 1 -2.0494628771400000e-01 8.4342608988100611e+00 1.3664016038704274e+01 4.8201121773675979e+00 0 0 0
38 1 5 3.5053712285699999e-02 1.0103719214356021e+01 1.2890556990352239e+01 5.9080236208036405e+00 0 0 0
96 1 5 3.5053712285699999e-02 1.5676918337436698e+01 1.3216200250413342e+01 5.9456988014029424e+00 0 0 0
2 1 2 -1.5208628771400001e-01 1.1372878710763658e+01 1.3565119370445027e+01 8.6831836510776608e+00 0 0 0
13 1 1 -6.9254877142899997e-03 1.6035285307215094e+01 1.5621214355389361e+01 8.5244572571297326e+00 0 0 0
14 1 2 -9.2582587714300002e-02 1.4277887841422936e+01 1.5814577642347663e+01 8.1299805778755463e+00 0 0 0
95 1 5 1.7378071228600001e-01 1.6435320850531220e+01 1.1858880137264535e+01 5.1656024805960312e+00 0 0 0
94 1 1 -2.0494628771400000e-01 1.6348787867020118e+01 1.1706871647818675e+01 7.3113289964551118e+00 0 0 0
98 1 5 3.5053712285699999e-02 1.6275833624699242e+01 1.2361257358587835e+01 8.1837997314108399e+00 0 0 0
93 1 1 -1.4494628771400000e-01 1.6520738707061355e+01 1.2525575564451053e+01 6.0269886464781850e+00 0 0 0
83 1 5 3.5053712285699999e-02 1.8850688450935071e+01 1.2754010417588630e+01 4.1112227203922584e+00 0 0 0
84 1 5 3.5053712285699999e-02 1.8777551850605533e+01 1.1454374524060958e+01 5.2665521031474940e+00 0 0 0
102 1 5 5.0537122857100001e-03 1.7249128073193237e+01 1.4678059551899791e+01 4.3989402923281595e+00 0 0 0
79 1 1 -1.4494628771400000e-01 1.8944776811012410e+01 1.2533023881253509e+01 5.1797048485553256e+00 0 0 0
103 1 7 -3.9494628771399998e-01 1.6805922506203459e+01 1.5581338572479249e+01 6.2164647352325071e+00 0 0 0
19 1 1 1.1483971228600000e-01 1.7115907977157530e+01 1.5610134292162723e+01 7.6437652898313564e+00 0 0 0
87 1 5 3.5053712285699999e-02 1.9982580856121242e+01 1.1654888006713772e+01 7.4162431028938283e+00 0 0 0
81 1 1 -1.4494628771400000e-01 2.0843789839185298e+01 1.2016312520155587e+01 6.8440115503394736e+00 0 0 0
80 1 1 -1.4494628771400000e-01 2.0377233403349027e+01 1.2854315628103505e+01 5.6430077304138031e+00 0 0 0
89 1 5 3.5053712285699999e-02 1.8235139356685760e+01 1.3383796761929702e+01 6.9877526338676912e+00 0 0 0
85 1 5 3.5053712285699999e-02 2.0461160682226392e+01 1.3917104013033178e+01 5.8784734246859474e+00 0 0 0
78 1 1 -8.4946287714300003e-02 1.7862331294549609e+01 1.3301420357518495e+01 5.9690219327777827e+00 0 0 0
100 1 1 1.1505371228600000e-01 1.7681069608589411e+01 1.4735185005929232e+01 5.4044815531827686e+00 0 0 0
101 1 5 5.0537122857100001e-03 1.8632767588035946e+01 1.5230153027397209e+01 5.2851357076534065e+00 0 0 0
18 1 1 -4.6045587714300000e-02 1.8408987766446820e+01 1.5900308017404219e+01 8.1942853487352441e+00 0 0 0
21 1 1 -6.1412587714299999e-02 2.0716338333091329e+01 1.6444764615845724e+01 8.3611815316338856e+00 0 0 0
22 1 1 -1.4066228771399999e-01 1.9584893500778744e+01 1.6428116360871044e+01 7.5790379702136814e+00 0 0 0
17 1 1 -7.9664487714300000e-02 1.8611350095559242e+01 1.5620755824300655e+01 9.5932645610717291e+00 0 0 0
86 1 5 3.5053712285699999e-02 2.1064075827334079e+01 1.2690587074213816e+01 4.8090989791991996e+00 0 0 0
92 1 5 3.5053712285699999e-02 2.1221628682131854e+01 1.3558101625980280e+01 8.3163799806517513e+00 0 0 0
82 1 1 -6.1425487714300002e-02 2.1771184036056827e+01 1.2791877830068271e+01 7.7839304046979709e+00 0 0 0
90 1 5 3.5053712285699999e-02 2.2215663244387372e+01 1.2128593549936163e+01 8.5268628103718491e+00 0 0 0
91 1 5 3.5053712285699999e-02 2.2582166676033058e+01 1.3277940245779178e+01 7.2360782125249479e+00 0 0 0
105 1 5 3.5053712285699999e-02 2.1691377018047017e+01 1.6805682265141559e+01 8.0299681584831042e+00 0 0 0
23 1 5 1.2595271228600000e-01 1.9560836526263529e+01 1.6997332422173823e+01 6.6684020646289897e+00 0 0 0
64 1 5 3.5053712285699999e-02 1.2257718890672477e+01 1.1090016919432424e+01 1.2173003186945317e+01 0 0 0
5 1 3 2.0727471228600000e-01 9.2315139949354883e+00 1.4137677567853959e+01 1.0188025130164466e+01 0 0 0
6 1 4 -2.0918328771399999e-01 7.9530330100688849e+00 1.4145542983128770e+01 1.0711144943544260e+01 0 0 0
4 1 1 3.2636312285699999e-02 1.0235313585452603e+01 1.5021526837100739e+01 1.0694353526382994e+01 0 0 0
9 1 1 -3.9429487714300000e-02 1.0281229933437638e+01 1.5988144372324427e+01 1.1695346120272070e+01 0 0 0
104 1 5 3.5053712285699999e-02 9.4426282107857382e+00 1.6301372126827662e+01 1.2319414782908561e+01 0 0 0
10 1 1 -1.1931887714300000e-02 1.3892681995529971e+01 1.5649753616488113e+01 9.9329524226901498e+00 0 0 0
12 1 1 -4.1008687714300003e-02 1.6235450266288787e+01 1.5481591360492949e+01 9.9374455369452832e+00 0 0 0
3 1 1 -7.2178187714299999e-02 1.1480881260751536e+01 1.4832473995602971e+01 9.9859752541046429e+00 0 0 0
65 1 5 3.5053712285699999e-02 1.2739105949110856e+01 1.2683084100037266e+01 1.1596023386586490e+01 0 0 0
56 1 1 -2.2605428771399999e-01 1.3040220164300317e+01 1.1847249706393514e+01 1.2233071555080388e+01 0 0 0
66 1 5 3.5053712285699999e-02 1.3951463251006995e+01 1.1418700686846002e+01 1.1815096214205523e+01 0 0 0
59 1 5 3.5053712285699999e-02 1.4398789243015170e+01 1.3938775156118115e+01 1.2948978151277805e+01 0 0 0
58 1 5 3.5053712285699999e-02 1.6162047475068519e+01 1.1809518900414073e+01 1.3650985359265814e+01 0 0 0
53 1 1 1.2722612285700000e-02 1.5767440474631959e+01 1.2764992929447008e+01 1.4017767200536902e+01 0 0 0
54 1 1 2.3589771228600001e-01 1.4425160003052824e+01 1.3288245039276708e+01 1.3828187742551759e+01 0 0 0
60 1 5 3.5053712285699999e-02 1.4190938152174997e+01 1.3959073577446770e+01 1.4671168369799554e+01 0 0 0
7 1 1 -1.5879877142900001e-03 1.2541329498051276e+01 1.5593520022494699e+01 1.0393153650735867e+01 0 0 0
63 1 5 2.2868171228600001e-01 1.6322941192822313e+01 1.4806211534233212e+01 1.3781856279564812e+01 0 0 0
15 1 5 1.4708171228600000e-01 1.5057207156012835e+01 1.5875214790479214e+01 1.1727296225329699e+01 0 0 0
11 1 1 -1.0875118771400000e-01 1.5029177533772920e+01 1.5586905428181874e+01 1.0690890686524650e+01 0 0 0
76 1 5 5.0537122857100001e-03 1.6447622490202686e+01 1.3360121557627085e+01 1.1589312132913740e+01 0 0 0
8 1 2 -4.1984587714299998e-02 1.1976309789368434e+01 1.6670023548322121e+01 1.1763128773576454e+01 0 0 0
57 1 5 3.5053712285699999e-02 1.5817826613616099e+01 1.2575849649272492e+01 1.5099981301519147e+01 0 0 0
61 1 5 3.5053712285699999e-02 1.2337590995401886e+01 1.2761573540754178e+01 1.4051699712259458e+01 0 0 0
55 1 1 -1.4494628771400000e-01 1.3260212829947466e+01 1.2297854439028791e+01 1.3681579472202433e+01 0 0 0
62 1 5 3.9743371228600000e-01 1.3431758591682119e+01 1.1422874702538232e+01 1.4317756038035181e+01 0 0 0
52 1 1 -3.6127087714300003e-02 1.6777146989786459e+01 1.3805857896168069e+01 1.3696804545027586e+01 0 0 0
74 1 1 1.1505371228600000e-01 1.7268631829057323e+01 1.3668142044264549e+01 1.2246339508072518e+01 0 0 0
75 1 5 5.0537122857100001e-03 1.8028073858742761e+01 1.2882859256743991e+01 1.2174748380644115e+01 0 0 0
20 1 2 -2.7267577714299999e-02 2.0362003406148315e+01 1.5801630574026545e+01 1.0053015510859222e+01 0 0 0
16 1 1 1.2764871228600000e-01 1.7561916304861811e+01 1.5244954586708786e+01 1.0430640880587321e+01 0 0 0
77 1 7 -3.9494628771399998e-01 1.7863800958977979e+01 1.4926434863917375e+01 1.1813831458284300e+01 0 0 0
69 1 5 1.1654571228600000e-01 1.8887549417084955e+01 1.4098009686064154e+01 1.4172875590743574e+01 0 0 0
67 1 1 -8.5907877142899994e-03 1.7968934642567227e+01 1.3782938744047915e+01 1.4680246932376523e+01 0 0 0
71 1 5 3.5053712285699999e-02 1.7693745451850539e+01 1.5729394966815933e+01 1.5604828270381798e+01 0 0 0
70 1 5 3.5053712285699999e-02 1.8161135050044173e+01 1.2759470903915785e+01 1.5014148259301869e+01 0 0 0
72 1 5 3.5053712285699999e-02 1.6847359716416538e+01 1.4427551213967178e+01 1.6442782055453080e+01 0 0 0
73 1 5 3.5053712285699999e-02 1.8600438557797311e+01 1.4592254314926214e+01 1.6596842948975659e+01 0 0 0
68 1 1 -2.0494628771400000e-01 1.7761799995109698e+01 1.4684542114033535e+01 1.5901068851106395e+01 0 0 0

Velocities

36 2.7003665692464538e-03 1.7004540992428846e-03 1.2549075601372532e-03
42 2.1900191846194361e-03 1.8414499294048582e-03 1.4614003808129639e-03
35 1.6906607064000501e-03 1.6378646982131634e-03 1.3034539631487854e-04
33 1.2774288455217643e-03 7.6028718009348213e-04 3.5398521397748804e-04
44 1.1397507405658995e-03 6.9253922026001611e-04 -1.3525771479796810e-03
25 1.1335347089868912e-03 4.6382579763163415e-04 7.4746572946638053e-04
29 1.3482056837542842e-03 6.4142786613371030e-04 -9.7142118659269722e-04
46 1.1905704999619401e-03 1.2179145123128708e-03 -1.9338195241576780e-03
43 1.3534370051995123e-03 4.7254743166571698e-04 -1.3190079870977654e-03
30 9.5790360036729285e-04 1.7281761782981034e-04 -1.2227573007457945e-03
47 1.4369985707696873e-03 -3.5875210824566097e-04 -5.3695820946424448e-04
48 6.4383278387280455e-04 -1.0672572865916131e-03 -4.1550138291933814e-04
31 7.3138882141107568e-04 -6.1991366831900098e-04 1.4106961715152521e-04
50 3.6338134687729227e-04 -3.1519463229626377e-04 8.5608411464703623e-04
24 9.4358844417631940e-04 2.7366008379787788e-05 -4.1979163901896207e-04
45 -4.1156941872800510e-04 -1.1924717902033820e-03 -1.4472812522263625e-03
39 8.2831321935991186e-04 -4.6493420533847416e-04 -6.2547812136947442e-04
49 7.0087110720748187e-04 -5.9285630605266672e-04 -3.7691450764079410e-04
34 1.2053560624584925e-03 -2.8609713569059772e-04 1.0897967025561596e-03
97 -2.1527217646220946e-03 1.7152803075781127e-03 4.2743690569154048e-03
88 7.7228436480194574e-04 -2.2073300293137766e-03 3.9945470861009203e-04
99 -2.3188599789195838e-03 6.8068953080942663e-04 5.0484073728121158e-03
26 1.8379658064287771e-03 1.3601622737893829e-03 9.8365402614629610e-04
37 9.1173452816235769e-04 1.0307424212174017e-03 2.0604955330161273e-04
27 1.7583378633657194e-03 8.1177990025365948e-04 1.0837936070323205e-03
51 8.6042247942222160e-05 -6.1933837436112249e-04 -3.1039010377448300e-04
32 1.5877102280911515e-04 -5.4540045756089589e-04 5.0159337813400777e-04
1 4.2678120302495532e-05 -2.6219575699693617e-04 4.5510288164497771e-04
41 8.5637333277138695e-04 1.2985055966452730e-03 1.6231341103662921e-03
40 3.1345986633347848e-03 -2.3009887989425168e-04 2.5784324482603454e-03
28 1.9374335991442552e-03 7.5791448085010197e-04 1.3216156616816545e-03
38 3.1419124730433191e-03 1.1136856653005576e-03 1.1345956511439911e-03
96 -8.7220138777031767e-04 1.2922757470087881e-04 1.1425705298358957e-03
2 4.6259629644466867e-05 -8.6546069591397377e-05 4.8247335900557860e-04
13 5.3715396819351469e-04 -1.7693435623824657e-04 2.8640736133191998e-04
14 3.3574518309206162e-04 -3.8872175892036700e-04 6.3416855478468516e-04
95 -8.5720618576648174e-04 -1.5371489884782325e-03 4.1344495548902302e-03
94 -1.8283124941269701e-03 1.3011097979576728e-03 3.6421580916994743e-03
98 -2.1913789102743870e-03 2.3036001653571254e-03 3.1222247454507205e-03
93 -9.3399452831094648e-04 -6.2274943316409232e-05 2.7369685437255192e-03
83 -1.7518300778205627e-03 -1.7248043904307226e-03 1.9045098613659842e-03
84 -1.8109069110248137e-03 -1.6530057963369360e-03 2.5581215723497778e-03
102 1.6761950288102828e-03 -2.6419626504921244e-03 6.4564898319290388e-05
79 -1.3292426887984573e-03 -1.9209023387905056e-03 1.6226355543583130e-03
103 2.3941132451028269e-04 1.2601754367437722e-04 7.6672309205067326e-04
19 -1.0946172727761552e-04 -1.6295034960852716e-04 6.0097677164905967e-04
87 -1.6704646723141617e-04 -3.5394745514088673e-03 4.3640548162943540e-04
81 -2.9499822471983322e-04 -2.7455295603541871e-03 6.7812752256426329e-04
80 -1.0449959525411195e-03 -2.0276090595906593e-03 1.3687915395796352e-03
89 7.2712950200912749e-04 -3.3001506620626575e-04 1.4431352695104859e-03
85 -5.3428858518742180e-04 -1.5238298081511170e-03 1.6156127374231367e-03
78 -4.3307929220148171e-04 -1.0079591089519218e-03 1.7813604656396853e-03
100 4.0473096147267172e-04 -1.1255986292132299e-03 1.1199575821433465e-03
101 4.5507840164804987e-04 -1.8040768372317184e-03 1.9634098346896986e-03
18 -6.1027755971065347e-04 1.4341834116108750e-04 1.6914110021470932e-04
21 -3.6105885833310634e-04 1.1881688822677921e-03 2.5434089450957024e-04
22 9.3530055168270431e-05 2.4733391089777287e-04 3.2159153250567798e-04
17 -1.8180164687780945e-04 6.0351770350988243e-04 5.6279406724372223e-04
86 -1.3452595071348178e-03 -1.4289955911191937e-03 1.6870977674522437e-03
92 -2.9360731549558736e-03 -2.6033843746001524e-03 1.4208105072976043e-03
82 -1.6831759052501889e-03 -2.2218400927645093e-03 1.8655308168165101e-03
90 -1.8702548513970030e-03 -1.5364675248355939e-03 2.3099004382819764e-03
91 -1.6568699931267903e-03 -1.3803060639873089e-03 2.4385704133628953e-03
105 -2.7357697857793178e-04 -1.4605855536659705e-04 -3.3953497044522272e-05
23 4.0179647003390308e-04 8.9249872211318991e-04 6.2413189426312415e-04
64 3.5939788907548816e-03 -2.6789747478740546e-03 -4.8054851482476780e-03
5 8.6189157817815725e-05 -4.0760421343583709e-04 7.3400817921349536e-04
6 2.3862989058835174e-05 -2.8949706297794474e-04 7.4496383150514335e-04
4 -3.8741071211762993e-04 -1.0988228100403314e-05 4.5846575143497611e-04
9 -3.7921925955126208e-04 -3.8731734454017924e-04 4.5448395120214075e-04
104 -7.5827948422449443e-04 9.1164575457224051e-05 -2.1500442588326100e-05
10 8.0626565924016169e-05 -1.9566381510476098e-04 4.5919874578727093e-04
12 6.0798993355678393e-04 -2.2133085106117525e-04 4.4894402999501320e-04
3 -8.5487682489425234e-05 -2.9570046510100532e-04 6.8034458228021270e-04
65 4.5272926750667174e-03 -2.8956069370968192e-03 -5.3543959570686072e-03
56 3.3419257205088626e-03 -2.8796432736122729e-03 -3.4590720024120915e-03
66 3.9806679658297983e-03 -3.5165957637806767e-03 -7.8337360509173038e-04
59 -7.2854291960330582e-04 -1.1739352234353558e-03 -3.1754173068281879e-04
58 -3.9947256834082926e-04 -5.6151504565588387e-04 -6.1042090506215874e-05
53 -5.4320914894684738e-04 -1.2149270552317634e-03 -5.6885446507815756e-04
54 -8.8002932579821073e-04 -2.2624046865107636e-03 -5.3175181212856092e-04
60 -1.5913521948233368e-03 -3.9149669658364566e-03 5.2382671767977121e-04
7 -6.6973411415699845e-05 -1.1175446655347909e-04 7.2075177608389501e-04
63 -1.6487649718204215e-03 -3.6166471210390008e-04 8.8694939438276521e-04
15 -1.0654839032056456e-03 -3.6175613225201580e-05 9.4628451161259954e-04
11 -1.1269522778714051e-04 -3.2584187310683439e-04 5.8300780476162200e-04
76 -1.3969010795953342e-04 7.0197412806564504e-05 7.0486190861500218e-05
8 -1.6251747322268179e-04 -1.9561437962564184e-04 5.8903505594665271e-04
57 -1.2707018776159759e-03 -7.3191665743736496e-04 -8.9202131893312362e-04
61 -8.8815481358470259e-04 -2.1413898292170271e-03 -4.3055888123115140e-03
55 -1.2902171897904705e-05 -2.3687411788504342e-03 -3.0170234132434787e-03
62 -1.3967230678273172e-03 -2.1088892610314656e-03 -2.5027439594464246e-03
52 -9.6392583554227363e-04 -7.8362567040719258e-04 5.3680683666412331e-04
74 -5.6782167864882500e-04 -1.3943456615143565e-04 1.1652455497848837e-04
75 2.9935511050845792e-04 4.6168315038630399e-05 8.1785975248086840e-04
20 -4.9209158781398721e-04 2.0161281766526637e-03 6.9596926343241461e-04
16 -1.0180981420173965e-04 2.8965881979975546e-04 4.5396309936923250e-04
77 -3.4675309324245921e-04 -6.8385532144743543e-04 6.8685612528214968e-04
69 -1.0385365534784363e-03 1.4807836500235619e-03 2.6383879110043523e-04
67 -6.6854569851788372e-04 -1.0658628960570732e-04 3.8323953793768388e-04
71 -3.8782384923729723e-03 -7.8310192705289758e-04 2.8047498888750890e-03
70 2.1179672062024012e-04 -8.2690521885602267e-04 -1.0449941178562270e-03
72 -1.5416714705639894e-03 -3.6042544986105694e-03 1.4229118722677105e-03
73 -2.2188543078603784e-03 -1.5734880775649816e-03 1.0016412386592004e-03
68 -2.2982434465379470e-03 -1.6435839693026829e-03 1.2812123414746234e-03

Bonds

1 17 36 26
2 17 42 28
3 17 35 26
4 17 33 25
5 17 44 29
6 16 25 24
7 16 29 24
8 17 46 30
9 17 43 29
10 16 30 29
11 17 47 30
12 17 48 31
13 16 31 24
14 18 50 31
15 18 50 32
16 17 45 30
17 17 39 24
18 17 49 31
19 17 34 25
20 17 97 94
21 17 88 81
22 17 99 94
23 16 26 25
24 17 37 27
25 16 27 26
26 19 51 32
27 16 32 1
28 17 41 28
29 17 40 28
30 16 28 27
31 17 38 27
32 17 96 93
33 1 2 1
34 10 13 12
35 11 14 10
36 12 14 13
37 17 95 93
38 16 94 93
39 17 98 94
40 16 93 78
41 17 83 79
42 17 84 79
43 17 102 100
44 16 79 78
45 18 103 100
46 18 103 19
47 14 19 18
48 15 19 13
49 17 87 81
50 16 81 80
51 16 80 79
52 17 89 78
53 17 85 80
54 16 100 78
55 17 101 100
56 5 18 17
57 1 21 20
58 7 22 21
59 5 22 18
60 15 17 16
61 17 86 80
62 17 92 82
63 16 82 81
64 17 90 82
65 17 91 82
66 17 105 21
67 13 23 22
68 17 64 56
69 4 5 1
70 5 5 4
71 6 6 5
72 3 4 3
73 8 9 8
74 9 9 4
75 17 104 9
76 5 10 7
77 5 12 11
78 2 3 2
79 17 65 56
80 16 56 55
81 17 66 56
82 17 59 54
83 17 58 53
84 20 53 52
85 5 54 53
86 17 60 54
87 7 7 3
88 17 63 52
89 13 15 11
90 7 11 10
91 17 76 74
92 8 8 7
93 17 57 53
94 17 61 55
95 16 55 54
96 17 62 55
97 16 74 52
98 17 75 74
99 2 20 17
100 14 16 12
101 18 77 74
102 18 77 16
103 17 69 67
104 16 67 52
105 17 71 68
106 17 70 67
107 17 72 68
108 17 73 68
109 16 68 67

Angles

1 43 24 25 26
2 42 24 25 33
3 42 24 25 34
4 42 26 25 33
5 42 26 25 34
6 44 33 25 34
7 42 30 29 43
8 42 30 29 44
9 43 30 29 24
10 44 43 29 44
11 42 43 29 24
12 42 44 29 24
13 42 29 30 45
14 42 29 30 46
15 42 29 30 47
16 44 45 30 46
17 44 45 30 47
18 44 46 30 47
19 42 24 31 48
20 42 24 31 49
21 45 24 31 50
22 44 48 31 49
23 46 48 31 50
24 46 49 31 50
25 48 31 50 32
26 42 25 24 39
27 43 25 24 29
28 43 25 24 31
29 42 39 24 29
30 42 39 24 31
31 43 29 24 31
32 43 25 26 27
33 42 25 26 35
34 42 25 26 36
35 42 27 26 35
36 42 27 26 36
37 44 35 26 36
38 43 26 27 28
39 42 26 27 37
40 42 26 27 38
41 42 28 27 37
42 42 28 27 38
43 44 37 27 38
44 47 50 32 51
45 2 50 32 1
46 2 51 32 1
47 1 5 1 2
48 2 5 1 32
49 2 2 1 32
50 42 27 28 40
51 42 27 28 41
52 42 27 28 42
53 44 40 28 41
54 44 40 28 42
55 44 41 28 42
56 3 1 2 3
57 27 12 13 14
58 28 12 13 19
59 29 10 14 13
60 42 93 94 97
61 42 93 94 98
62 42 93 94 99
63 44 97 94 98
64 44 97 94 99
65 44 98 94 99
66 42 94 93 95
67 42 94 93 96
68 43 94 93 78
69 44 95 93 96
70 42 95 93 78
71 42 96 93 78
72 43 78 79 80
73 42 78 79 83
74 42 78 79 84
75 42 80 79 83
76 42 80 79 84
77 44 83 79 84
78 48 100 103 19
79 36 18 19 13
80 2 18 19 103
81 43 80 81 82
82 42 80 81 87
83 42 80 81 88
84 42 82 81 87
85 42 82 81 88
86 44 87 81 88
87 43 79 80 81
88 42 79 80 85
89 42 79 80 86
90 42 81 80 85
91 42 81 80 86
92 44 85 80 86
93 42 79 78 89
94 43 79 78 93
95 43 79 78 100
96 42 89 78 93
97 42 89 78 100
98 43 93 78 100
99 42 78 100 101
100 42 78 100 102
101 45 78 100 103
102 44 101 100 102
103 46 101 100 103
104 46 102 100 103
105 33 17 18 19
106 34 17 18 22
107 35 19 18 22
108 38 20 21 22
109 18 20 21 105
110 18 22 21 105
111 39 21 22 18
112 40 21 22 23
113 41 18 22 23
114 31 16 17 18
115 32 16 17 20
116 42 81 82 90
117 42 81 82 91
118 42 81 82 92
119 44 90 82 91
120 44 90 82 92
121 44 91 82 92
122 10 6 5 1
123 11 6 5 4
124 12 1 5 4
125 7 3 4 5
126 8 3 4 9
127 9 5 4 9
128 17 8 9 4
129 18 8 9 104
130 18 4 9 104
131 19 14 10 11
132 20 7 10 11
133 21 7 10 14
134 25 11 12 13
135 26 13 12 16
136 4 2 3 4
137 5 2 3 7
138 6 4 3 7
139 42 55 56 64
140 42 55 56 65
141 42 55 56 66
142 44 64 56 65
143 44 64 56 66
144 44 65 56 66
145 49 52 53 54
146 42 52 53 57
147 50 52 53 58
148 42 54 53 57
149 51 54 53 58
150 44 57 53 58
151 52 53 54 55
152 42 53 54 59
153 42 53 54 60
154 42 55 54 59
155 42 55 54 60
156 44 59 54 60
157 13 3 7 8
158 14 3 7 10
159 15 8 7 10
160 22 10 11 12
161 23 10 11 15
162 24 12 11 15
163 16 7 8 9
164 43 54 55 56
165 42 54 55 61
166 42 54 55 62
167 42 56 55 61
168 42 56 55 62
169 44 61 55 62
170 42 53 52 63
171 43 53 52 67
172 43 53 52 74
173 42 63 52 67
174 42 63 52 74
175 43 67 52 74
176 42 52 74 75
177 42 52 74 76
178 45 52 74 77
179 44 75 74 76
180 46 75 74 77
181 46 76 74 77
182 37 17 20 21
183 30 12 16 17
184 2 17 16 77
185 48 74 77 16
186 42 68 67 69
187 42 68 67 70
188 43 68 67 52
189 44 69 67 70
190 42 69 67 52
191 42 70 67 52
192 42 67 68 71
193 42 67 68 72
194 42 67 68 73
195 44 71 68 72
196 44 71 68 73
197 44 72 68 73

Dihedrals

1 6 26 25 24 31
2 6 26 25 24 29
3 5 46 30 29 43
4 8 24 31 50 32
5 9 31 50 32 51
6 6 25 24 29 30
7 7 25 24 31 50
8 6 27 26 25 24
9 6 28 27 26 25
10 2 5 1 2 3
11 3 2 1 32 50
12 5 40 28 27 37
13 2 1 2 3 4
14 2 12 13 14 10
15 4 14 13 12 16
16 4 10 14 13 19
17 5 98 94 93 95
18 6 80 79 78 100
19 6 80 79 78 93
20 11 17 19 103 100
21 6 82 81 80 79
22 6 81 80 79 78
23 6 79 78 93 94
24 7 79 78 100 103
25 2 20 21 22 18
26 1 16 17 18 22
27 5 90 82 81 87
28 1 3 4 5 6
29 2 9 4 3 7
30 4 11 12 13 19
31 1 11 12 13 19
32 4 2 3 4 9
33 4 2 3 4 9
34 5 64 56 55 61
35 6 54 53 52 74
36 6 54 53 52 67
37 6 55 54 53 52
38 2 3 7 8 9
39 10 3 7 10 11
40 2 10 11 12 13
41 2 7 8 9 4
42 6 56 55 54 53
43 6 53 52 67 68
44 7 53 52 74 77
45 2 18 20 21 22
46 4 21 20 17 16
47 11 18 16 77 74
48 5 72 68 67 69

Impropers

1 2 2 1 32 5
2 3 14 13 12 19
3 2 12 19 103 17
4 3 19 18 17 22
5 3 16 17 20 18
6 1 4 5 6 1
7 3 9 4 3 5
8 4 7 10 11 14
9 3 11 12 13 16
10 3 2 3 4 7
11 4 3 7 10 9
12 2 13 16 77 18
