LAMMPS Description
 
          18 atoms
          18 bonds
          30 angles
          45 dihedrals
           0 impropers
 
           5  atom types
           5  bond types
           6  angle types
           7  dihedral types
           0  improper types

   0.00000	  10.00000	xlo xhi
   0.00000	  10.00000	ylo yhi
   0.00000	  10.00000	zlo zhi

Masses

  1  1.0080
  2  1.0080
  3 12.0110
  4 12.0110
  5 60.0000

Pair Coeffs

  1    0.030000    2.500000 
  2    0.030000    2.420000 
  3    0.066000    3.500000	
  4    0.070000    3.550000 
  5    1.243000    3.000000 

Bond Coeffs

  1   340.00000    1.090000	
  2   268.00000    1.529000 
  3   367.00000    1.080000 
  4   469.00000    1.400000 
  5   317.00000    1.510000 

Angle Coeffs

  1   37.500000  110.700000 
  2   33.000000  107.800000 
  3   35.000000  120.000000 
  4   58.350000  112.700000 
  5   63.000000  120.000000 
  6   35.000000  109.500000 

Dihedral Coeffs
 
  1   0.000  0.000  0.000  0.000  
  2   0.000  0.000  0.000  0.000  
  3   0.000  0.000  0.462  0.000  
  4   0.000  7.250  0.000  0.000  
  5   0.000  0.000  0.300  0.000  
  6   0.000  2.200  0.000  0.000  
  7   0.000  10.00  0.000  0.000  

Atoms

      1	     1	  3	 -0.1800	  7.2100	  4.3500	  3.8700
      2	     1	  3	 -0.0050	  6.7600	  5.1000	  5.1300
      3	     1	  4	 -0.1150	  5.2500	  5.1500	  5.2600
      4	     1	  4	 -0.1150	  4.5600	  4.1200	  5.9300
      5	     1	  4	 -0.1150	  3.1500	  4.1700	  6.0500
      6	     1	  4	 -0.1150	  2.4400	  5.2500	  5.4900
      7	     1	  4	 -0.1150	  3.1200	  6.2800	  4.8100
      8	     1	  4	 -0.1150	  4.5300	  6.2300	  4.7000
      9	     1	  1	  0.0600	  6.8300	  4.8300	  2.9700
     10	     1	  1	  0.0600	  8.3000	  4.3200	  3.8000
     11	     1	  1	  0.0600	  6.8500	  3.3200	  3.8800
     12	     1	  1	  0.0600	  7.1500	  6.1100	  5.1200
     13	     1	  1	  0.0600	  7.1700	  4.6200	  6.0200
     14	     1	  2	  0.1150	  5.1000	  3.2900	  6.3600
     15	     1	  2	  0.1150	  2.6200	  3.3900	  6.5700
     16	     1	  2	  0.1150	  1.3600	  5.2900	  5.5800
     17	     1	  2	  0.1150	  2.5800	  7.1000	  4.3800
     18	     1	  2	  0.1150	  5.0500	  7.0200	  4.1700

Bonds

       1	 1	        1       10
       2	 1	        1       11
       3	 2	        1        2
       4	 1	        1        9
       5	 1	        2       12
       6	 1	        2       13
       7	 5	        2        3
       8	 4	        3        4
       9	 4	        3        8
      10	 3	        4       14
      11	 4	        4        5
      12	 3	        5       15
      13	 4	        5        6
      14	 3	        6       16
      15	 4	        6        7
      16	 3	        7       17
      17	 4	        7        8
      18	 3	        8       18

Angles

       1	 4	        1        2        3
       2	 1	        2        1        9
       3	 1	        2        1       10
       4	 1	        2        1       11
       5	 1	        1        2       12
       6	 1	        1        2       13
       7	 2	        9        1       10
       8	 2	        9        1       11
       9	 2	       10        1       11
      10	 2	       12        2       13
      11	 5	        2        3        4
      12	 5	        2        3        8
      13	 5	        3        4        5
      14	 5	        4        3        8
      15	 5	        3        8        7
      16	 5	        4        5        6
      17	 5	        5        6        7
      18	 5	        6        7        8
      19	 6	        3        2       12
      20	 6	        3        2       13
      21	 3	        3        4       14
      22	 3	        3        8       18
      23	 3	        5        4       14
      24	 3	        4        5       15
      25	 3	        6        5       15
      26	 3	        5        6       16
      27	 3	        7        6       16
      28	 3	        6        7       17
      29	 3	        8        7       17
      30	 3	        7        8       18

Dihedrals

        1	 2	        1        2        3        4
        2	 2	        1        2        3        8
        3	 3	        3        2        1        9
        4	 3	        3        2        1       10
        5	 3	        3        2        1       11
        6	 5	        9        1        2       12
        7	 5	        9        1        2       13
        8	 5	       10        1        2       12
        9	 5	       10        1        2       13
       10	 5	       11        1        2       12
       11	 5	       11        1        2       13
       12	 4	        2        3        4        5
       13	 7	        2        3        4        8
       14	 1	        4        3        2       12
       15	 1	        4        3        2       13
       16	 4	        2        3        4       14
       17	 4	        2        3        8        7
       18	 1	        8        3        2       12
       19	 1	        8        3        2       13
       20	 4	        2        3        8       18
       21	 4	        3        4        5        6
       22	 4	        5        4        3        8
       23	 6	        3        4        5       14
       24	 4	        3        4        5       15
       25	 4	        4        3        8        7
       26	 4	        8        3        4       14
       27	 4	        4        3        8       18
       28	 4	        3        8        7        6
       29	 4	        3        8        7       17
       30	 6	        3        8        7       18
       31	 4	        4        5        6        7
       32	 4	        6        5        4       14
       33	 6	        4        5        6       15
       34	 4	        4        5        6       16
       35	 4	       14        4        5       15
       36	 4	        5        6        7        8
       37	 4	        7        6        5       15
       38	 6	        5        6        7       16
       39	 4	        5        6        7       17
       40	 4	       15        5        6       16
       41	 4	        8        7        6       16
       42	 6	        6        7        8       17
       43	 4	        6        7        8       18
       44	 4	       16        6        7       17
       45	 4	       17        7        8       18
